10
Frame at timestep 0
1 18.213 6.696 0
2 19.0161 18.663 0
3 18.4347 17.7033 0
4 2.1178 13.9009 0
5 4.85295 3.55566 0
6 6.1445 10.6119 0
7 12.0908 9.97606 0
8 11.9728 6.50768 0
9 2.52339 10.6278 0
10 11.3372 3.4803 0
10
Frame at timestep 200
1 19.2224 6.80072 0
2 18.8951 19.2155 0
3 18.8975 18.0409 0
4 2.98407 13.5399 0
5 5.40991 2.46274 0
6 6.14591 11.1581 0
7 12.3286 10.4689 0
8 11.8941 7.66172 0
9 2.09912 9.37473 0
10 10.8882 4.20984 0
10
Frame at timestep 400
1 18.1513 6.90422 0
2 18.7757 18.7849 0
3 18.4196 17.7175 0
4 3.8227 13.1831 0
5 5.96041 1.17672 0
6 6.1473 11.698 0
7 12.5619 10.9499 0
8 11.8181 8.8085 0
9 1.31201 8.13621 0
10 10.4444 4.93092 0
10
Frame at timestep 600
1 17.8342 6.99763 0
2 19.1831 19.1626 0
3 18.5583 18.3597 0
4 4.62492 12.8376 0
5 6.4572 1.74709 0
6 6.10314 12.2088 0
7 12.7101 11.2474 0
8 11.8118 9.9799 0
9 1.47086 7.01853 0
10 10.044 5.58165 0
10
Frame at timestep 800
1 17.8317 7.07365 0
2 18.6901 19.1813 0
3 18.5046 18.0665 0
4 4.77713 12.6536 0
5 6.86153 2.35792 0
6 6.5679 12.5272 0
7 13.0462 11.5858 0
8 11.5913 10.837 0
9 1.64634 6.10887 0
10 9.71807 6.11127 0
10
Frame at timestep 1000
1 18.0971 7.13779 0
2 18.8506 19.068 0
3 18.851 17.964 0
4 5.01822 12.5762 0
5 7.20264 2.69953 0
6 6.84732 12.7181 0
7 13.0817 11.7704 0
8 11.6532 11.6611 0
9 0.826801 5.34143 0
10 9.44311 6.55808 0
10
Frame at timestep 1200
1 18.906 7.19837 0
2 19.2432 18.9545 0
3 18.4925 18.1279 0
4 5.5225 12.4742 0
5 7.52483 3.01059 0
6 6.83467 12.9272 0
7 12.9565 12.0308 0
8 11.8704 12.3534 0
9 1.5336 4.61657 0
10 9.1834 6.9801 0
10
Frame at timestep 1400
1 18.3154 7.26056 0
2 18.9693 19.1306 0
3 18.7567 17.8138 0
4 5.57027 12.2891 0
5 7.85558 3.32991 0
6 7.2916 13.2224 0
7 12.988 12.3077 0
8 11.9335 13.0545 0
9 1.19173 3.87243 0
10 8.91678 7.41335 0
10
Frame at timestep 1600
1 17.7034 7.32897 0
2 19.1136 19.0705 0
3 18.3616 18.2413 0
4 6.00672 12.284 0
5 8.21943 3.68119 0
6 7.41035 13.3485 0
7 12.9577 12.4968 0
8 12.0677 13.9413 0
9 1.52796 3.05385 0
10 8.62349 7.88994 0
10
Frame at timestep 1800
1 17.2423 7.40723 0
2 18.9565 19.1646 0
3 17.561 19.2251 0
4 6.56321 12.1787 0
5 8.63564 4.08302 0
6 7.48897 13.5922 0
7 12.6233 13.1275 0
8 12.521 14.5412 0
9 1.91723 2.10243 0
10 8.28799 8.43512 0
10
Frame at timestep 2000
1 16.7436 7.49494 0
2 19.1172 19.146 0
3 18.9796 17.9806 0
4 6.85925 11.7926 0
5 9.10217 4.53344 0
6 7.90482 14.1336 0
7 12.3997 13.5313 0
8 12.878 15.5169 0
9 1.84565 0.790168 0
10 7.91193 9.04622 0
10
Frame at timestep 2200
1 16.2298 7.58529 0
2 19.0568 18.9604 0
3 18.0492 18.2329 0
4 7.20134 11.4249 0
5 9.58267 4.99734 0
6 8.30289 14.6349 0
7 12.2214 14.2491 0
8 13.1935 16.2199 0
9 1.16043 2.30582 0
10 7.51765 9.70173 0
10
Frame at timestep 2400
1 15.7181 7.67529 0
2 19.0538 18.9658 0
3 17.9696 18.276 0
4 7.63166 11.6382 0
5 10.0613 5.45946 0
6 8.69944 15.1344 0
7 12.109 15.0987 0
8 13.4426 16.7856 0
9 1.57073 3.45692 0
10 7.03534 9.77515 0
10
Frame at timestep 2600
1 15.2221 7.76252 0
2 19.0709 18.9857 0
3 19.2307 17.9473 0
4 7.99054 12.2048 0
5 10.5253 5.90737 0
6 9.08379 15.6185 0
7 12.115 16.0605 0
8 13.5692 17.1956 0
9 1.8708 4.57028 0
10 6.62607 9.48646 0
10
Frame at timestep 2800
1 14.722 7.85046 0
2 19.1162 18.6873 0
3 17.9125 18.7272 0
4 8.34768 12.7638 0
5 10.993 6.35896 0
6 9.4713 16.1066 0
7 12.1697 17.2156 0
8 13.6482 17.4237 0
9 1.63326 5.69281 0
10 6.21812 9.20763 0
10
Frame at timestep 3000
1 14.2052 7.94135 0
2 18.8338 18.9577 0
3 17.8112 18.6656 0
4 8.71676 13.3415 0
5 11.4764 6.82567 0
6 9.87178 16.611 0
7 11.9102 18.2633 0
8 14.0457 17.9342 0
9 1.00095 6.8529 0
10 5.79653 8.91947 0
10
Frame at timestep 3200
1 13.6465 8.02684 0
2 18.9025 19.0529 0
3 17.197 19.2403 0
4 9.10048 13.9421 0
5 12.0004 7.31989 0
6 10.2889 17.1363 0
7 11.8593 18.6403 0
8 14.2395 18.9281 0
9 1.86747 8.05898 0
10 5.35823 8.61988 0
10
Frame at timestep 3400
1 13.6908 8.40035 0
2 19.0064 19.1389 0
3 17.1972 18.5742 0
4 9.49096 14.5533 0
5 11.9208 7.53629 0
6 10.5159 17.8007 0
7 12.054 17.2836 0
8 14.3875 18.2335 0
9 2.12224 9.2863 0
10 4.91221 8.31502 0
10
Frame at timestep 3600
1 14.1669 8.95799 0
2 19.1829 19.2353 0
3 17.9563 19.0379 0
4 9.87536 15.155 0
5 11.4099 7.55939 0
6 10.348 18.5591 0
7 12.6698 16.2508 0
8 14.5007 17.5352 0
9 2.06446 10.4946 0
10 4.47311 8.0149 0
10
Frame at timestep 3800
1 14.6306 9.50796 0
2 18.7236 18.999 0
3 17.738 18.0474 0
4 10.2579 15.7538 0
5 10.9116 7.58731 0
6 10.2076 18.5354 0
7 13.3608 15.3192 0
8 14.5082 16.8897 0
9 1.65371 11.6969 0
10 4.03618 7.71625 0
10
Frame at timestep 4000
1 15.0873 10.0496 0
2 19.1374 18.9956 0
3 18.1777 18.4722 0
4 10.6186 16.4213 0
5 10.4207 7.61481 0
6 10.0854 17.7818 0
7 14.2698 14.8209 0
8 14.2872 15.835 0
9 1.06072 12.8811 0
10 3.60582 7.4221 0
10
Frame at timestep 4200
1 15.5338 10.5792 0
2 19.0266 18.5839 0
3 17.6371 19.2404 0
4 11.3307 16.6926 0
5 9.94091 7.6417 0
6 9.60658 17.7257 0
7 15.1387 13.7731 0
8 14.0909 15.3646 0
9 1.86151 14.0387 0
10 3.18513 7.13456 0
10
Frame at timestep 4400
1 15.9584 11.0882 0
2 18.9626 19.2121 0
3 18.1178 18.4382 0
4 11.9007 16.8788 0
5 9.48412 7.66729 0
6 9.25858 17.9679 0
7 15.7325 13.2337 0
8 14.1378 14.4537 0
9 2.02456 15.1407 0
10 2.78464 6.86082 0
10
Frame at timestep 4600
1 16.4233 11.5615 0
2 18.7411 19.1676 0
3 18.009 18.1733 0
4 12.4637 17.0755 0
5 9.02056 7.69326 0
6 8.92084 18.6173 0
7 16.0744 12.9036 0
8 14.412 13.3553 0
9 1.8038 16.2591 0
10 2.37112 6.58302 0
10
Frame at timestep 4800
1 17.0832 11.0961 0
2 19.2325 18.7593 0
3 18.5012 17.8442 0
4 13.0737 17.2886 0
5 8.51839 7.72139 0
6 8.55498 18.4573 0
7 15.5322 13.6082 0
8 15.4656 12.0814 0
9 0.785423 17.4707 0
10 1.73887 6.28208 0
10
Frame at timestep 5000
1 17.9033 10.5671 0
2 19.135 18.5369 0
3 18.8315 17.4615 0
4 13.7107 17.5113 0
5 7.99394 7.75078 0
6 8.17288 17.6243 0
7 14.8327 13.6402 0
8 16.5746 11.4977 0
9 1.79976 18.9474 0
10 1.09222 5.96779 0
10
Frame at timestep 5200
1 19.1844 9.8855 0
2 19.167 18.188 0
3 18.5883 17.2473 0
4 14.2915 17.8082 0
5 7.51571 7.77757 0
6 7.82445 17.0374 0
7 14.2069 13.6263 0
8 17.2453 11.2079 0
9 2.20799 18.0944 0
10 1.92352 5.6812 0
10
Frame at timestep 5400
1 17.923 9.60317 0
2 19.2309 18.3695 0
3 18.8997 17.2341 0
4 14.7925 18.3314 0
5 7.10323 7.80068 0
6 7.52393 16.534 0
7 13.6672 13.6142 0
8 18.0988 10.6524 0
9 2.31059 17.2779 0
10 2.14156 5.43401 0
10
Frame at timestep 5600
1 17.3262 9.29572 0
2 19.2212 18.8935 0
3 19.2465 17.7866 0
4 15.2431 18.94 0
5 6.73226 7.82146 0
6 7.25366 16.0813 0
7 13.1817 13.6034 0
8 19.1304 10.2063 0
9 2.1954 16.5922 0
10 2.05221 5.2117 0
10
Frame at timestep 5800
1 16.8946 9.26263 0
2 19.2012 18.7381 0
3 18.7456 17.6739 0
4 15.659 18.2444 0
5 6.38979 7.84065 0
6 7.00414 15.6633 0
7 12.7336 13.5934 0
8 18.3985 9.54371 0
9 1.82622 15.9592 0
10 1.61748 5.00647 0
10
Frame at timestep 6000
1 16.3167 9.09454 0
2 19.0576 18.661 0
3 18.7562 17.5686 0
4 16.0518 18.325 0
5 6.06642 7.85877 0
6 6.76854 15.2686 0
7 12.3105 13.584 0
8 18.9858 9.05492 0
9 0.756355 15.3614 0
10 1.12133 4.81268 0
10
Frame at timestep 6200
1 15.8493 8.93737 0
2 19.1071 19.1474 0
3 19.1162 18.0286 0
4 16.4387 19.2634 0
5 5.74787 7.87662 0
6 6.53645 14.8798 0
7 11.8936 13.5747 0
8 18.5413 8.56501 0
9 1.75499 14.7726 0
10 1.84514 4.62178 0
10
Frame at timestep 6400
1 15.3741 8.77758 0
2 19.1986 18.6026 0
3 18.9821 17.525 0
4 16.8937 18.2807 0
5 5.424 7.89476 0
6 6.30049 14.4845 0
7 11.4699 13.5652 0
8 18.9949 8.06693 0
9 2.08118 14.1739 0
10 1.95021 4.4277 0
10
Frame at timestep 6600
1 14.8233 8.59242 0
2 19.1835 19.1473 0
3 18.9217 18.0279 0
4 17.4166 18.2272 0
5 5.04871 7.91579 0
6 6.02707 14.0265 0
7 10.9788 13.5543 0
8 18.3644 7.48976 0
9 2.08359 13.4802 0
10 1.57661 4.20279 0
10
Frame at timestep 6800
1 14.1474 8.36513 0
2 18.8145 18.5495 0
3 17.9891 17.7623 0
4 16.9829 19.0025 0
5 4.58805 7.9416 0
6 5.69144 13.4643 0
7 10.376 13.5409 0
8 17.9369 6.7813 0
9 1.71376 12.6286 0
10 1.27262 3.92673 0
10
Frame at timestep 7000
1 13.3892 8.11022 0
2 19.168 17.7748 0
3 17.9118 17.3896 0
4 15.9968 18.8332 0
5 4.0714 7.97054 0
6 5.31503 12.8337 0
7 9.69994 13.5258 0
8 17.832 5.98672 0
9 0.966588 11.6736 0
10 2.3125 3.61712 0
10
Frame at timestep 7200
1 12.592 7.8422 0
2 18.7598 17.2848 0
3 17.794 16.7749 0
4 14.743 18.6073 0
5 3.52816 8.00098 0
6 4.91924 12.1707 0
7 8.98911 13.5099 0
8 18.0095 5.15126 0
9 2.00444 10.6694 0
10 3.14832 3.29157 0
10
Frame at timestep 7400
1 11.7604 7.56258 0
2 18.9312 16.7141 0
3 17.9615 16.2375 0
4 13.4351 18.9822 0
5 2.94885 8.06684 0
6 4.50633 11.479 0
7 8.24753 13.4934 0
8 18.6423 4.27967 0
9 2.57139 9.58773 0
10 4.01591 2.95194 0
10
Frame at timestep 7600
1 10.9045 7.2748 0
2 18.8376 16.2432 0
3 17.7482 15.5681 0
4 12.0891 18.5549 0
5 2.30202 7.23797 0
6 4.06025 10.7389 0
7 7.48429 13.4764 0
8 18.5071 3.38261 0
9 3.13996 9.39929 0
10 4.90884 2.60239 0
10
Frame at timestep 7800
1 10.0917 7.00153 0
2 18.9685 15.4321 0
3 17.7378 15.2963 0
4 10.8109 19.0689 0
5 1.5405 6.17893 0
6 3.98096 10.7128 0
7 6.75954 13.4602 0
8 17.9897 2.53081 0
9 3.26679 8.81573 0
10 5.75673 2.22786 0
10
Frame at timestep 8000
1 9.39033 6.7657 0
2 18.8273 14.8502 0
3 17.7045 14.9437 0
4 9.70781 18.7017 0
5 1.29005 5.26529 0
6 4.0495 10.8634 0
7 6.1341 13.4463 0
8 17.9125 1.68295 0
9 3.23916 8.13864 0
10 6.48845 1.66167 0
10
Frame at timestep 8200
1 8.81877 6.57353 0
2 18.9996 14.2933 0
3 17.845 14.7392 0
4 8.80895 18.8691 0
5 1.57402 4.52078 0
6 4.10153 10.975 0
7 5.62444 13.4349 0
8 18.1507 1.15434 0
9 3.22045 7.59801 0
10 7.08472 1.04112 0
10
Frame at timestep 8400
1 8.33339 6.41033 0
2 19.1703 14.0454 0
3 18.1691 14.3403 0
4 8.04562 19.1273 0
5 0.730769 3.88852 0
6 4.14571 11.0698 0
7 5.19162 13.4252 0
8 18.9546 1.67991 0
9 3.20457 7.13888 0
10 7.59108 1.51424 0
10
Frame at timestep 8600
1 7.87433 6.25598 0
2 18.9587 13.6596 0
3 17.9465 14.1145 0
4 7.32367 19.2079 0
5 1.49844 3.29055 0
6 4.19336 11.1763 0
7 4.77641 13.3992 0
8 18.4036 1.29937 0
9 3.18955 6.70466 0
10 8.06999 0.806587 0
10
Frame at timestep 8800
1 7.40667 6.09874 0
2 18.8804 13.3711 0
3 17.8609 13.78 0
4 6.5882 18.946 0
5 0.746901 2.68137 0
6 4.2676 11.4031 0
7 4.32772 13.2544 0
8 18.1917 1.45403 0
9 3.17425 6.2623 0
10 8.55787 1.55317 0
10
Frame at timestep 9000
1 6.89719 5.92744 0
2 19.2014 13.1686 0
3 18.0961 13.3036 0
4 5.78697 18.7614 0
5 1.61673 1.96349 0
6 4.49817 11.6885 0
7 3.68922 13.0584 0
8 18.6243 1.84828 0
9 3.15758 5.78038 0
10 9.08938 0.963576 0
10
Frame at timestep 9200
1 6.31595 5.73201 0
2 18.7749 12.8412 0
3 17.664 12.8566 0
4 4.87287 18.8005 0
5 1.56383 0.815652 0
6 4.83006 11.505 0
7 2.89195 13.3438 0
8 18.5108 1.68908 0
9 3.13857 5.23059 0
10 9.69575 1.66048 0
10
Frame at timestep 9400
1 5.66779 5.51408 0
2 19.0646 12.5769 0
3 17.9812 12.2574 0
4 3.85355 19.1905 0
5 1.05187 2.32496 0
6 5.15703 11.3549 0
7 2.01757 13.6076 0
8 17.7174 0.812919 0
9 3.11736 4.6175 0
10 10.3719 2.02908 0
10
Frame at timestep 9600
1 4.97881 5.28051 0
2 18.9925 12.2147 0
3 17.7907 11.7135 0
4 2.78411 18.6808 0
5 1.93918 3.6192 0
6 5.50008 11.1974 0
7 0.794293 13.8844 0
8 17.1278 1.84762 0
9 2.99295 3.90739 0
10 11.0813 2.03159 0
10
Frame at timestep 9800
1 4.19783 4.94307 0
2 18.9551 11.7343 0
3 17.6925 11.2889 0
4 1.64418 18.8303 0
5 1.29844 4.81551 0
6 5.84279 11.0401 0
7 2.1497 14.1608 0
8 16.5497 2.18654 0
9 3.76024 3.397 0
10 11.7901 1.65837 0
10
Frame at timestep 10000
1 3.20432 4.16055 0
2 19.1203 11.0694 0
3 18.1152 11.0714 0
4 1.45587 19.0625 0
5 1.4612 5.91776 0
6 6.17691 10.8867 0
7 3.0353 14.4304 0
8 15.9862 2.24497 0
9 4.64678 3.41703 0
10 12.481 1.01546 0
10
Frame at timestep 10200
1 2.81628 3.2601 0
2 18.9488 10.4498 0
3 17.7325 10.8595 0
4 2.48186 18.7413 0
5 1.73205 6.94683 0
6 6.49172 10.7422 0
7 3.85682 14.6844 0
8 15.4547 2.06282 0
9 4.92316 3.60854 0
10 13.1325 1.72544 0
10
Frame at timestep 10400
1 2.64279 2.36159 0
2 18.9479 9.96114 0
3 17.8562 10.5205 0
4 3.3463 18.7861 0
5 1.22254 7.9712 0
6 6.80511 10.5983 0
7 4.67463 14.9372 0
8 15.0131 1.46859 0
9 4.98542 3.79944 0
10 13.6936 1.64905 0
10
Frame at timestep 10600
1 2.48098 1.20376 0
2 19.1483 9.59345 0
3 18.0583 10.0374 0
4 4.23485 19.2576 0
5 1.51581 9.02419 0
6 7.12726 10.4504 0
7 5.51528 15.1971 0
8 15.7605 1.42644 0
9 5.03193 3.98963 0
10 13.069 0.752534 0
10
Frame at timestep 10800
1 2.21963 1.75729 0
2 18.8287 9.05413 0
3 17.8236 9.74809 0
4 5.10021 18.8048 0
5 1.80425 10.0497 0
6 7.441 10.3064 0
7 6.334 15.4502 0
8 16.4091 2.09008 0
9 5.07723 4.17486 0
10 12.54 1.65553 0
10
Frame at timestep 11000
1 1.70123 2.57561 0
2 19.2062 8.77043 0
3 18.041 9.23522 0
4 5.93212 18.7406 0
5 1.45668 11.0356 0
6 7.74261 10.1679 0
7 7.12107 15.6936 0
8 17.0327 2.3718 0
9 5.12077 4.35293 0
10 12.0315 1.53643 0
10
Frame at timestep 11200
1 1.07232 3.31521 0
2 18.8822 8.32422 0
3 17.9323 8.86549 0
4 6.78425 19.024 0
5 1.33007 12.0454 0
6 8.05156 10.0261 0
7 7.92726 15.9428 0
8 17.6772 2.45987 0
9 5.16537 4.53533 0
10 11.5106 1.12491 0
10
Frame at timestep 11400
1 2.03926 4.07342 0
2 18.8663 7.87543 0
3 17.8674 8.47782 0
4 7.65782 18.9587 0
5 1.90574 13.0806 0
6 8.36827 9.88068 0
7 8.75374 16.1983 0
8 18.5614 2.38134 0
9 5.2111 4.72231 0
10 10.9766 1.77043 0
10
Frame at timestep 11600
1 2.58185 4.87466 0
2 19.2092 7.54696 0
3 18.0769 7.92237 0
4 8.58129 18.6619 0
5 1.9768 14.1746 0
6 8.70296 9.72702 0
7 9.62679 16.4691 0
8 18.4039 2.09765 0
9 5.25942 4.91991 0
10 10.4123 1.70477 0
10
Frame at timestep 11800
1 3.1298 5.77399 0
2 18.7953 6.99522 0
3 17.6461 7.47966 0
4 9.63866 19.0206 0
5 1.60319 15.4053 0
6 9.07949 9.55416 0
7 10.5906 16.8127 0
8 17.2536 1.39614 0
9 5.30049 5.14429 0
10 9.77746 0.718554 0
10
Frame at timestep 12000
1 3.86359 6.7287 0
2 19.1935 6.67843 0
3 18.0599 6.68639 0
4 10.9572 18.3073 0
5 1.17616 16.7792 0
6 9.4998 9.3612 0
7 11.5281 17.4396 0
8 16.0616 1.55653 0
9 5.22419 5.44394 0
10 9.06881 1.89256 0
10
Frame at timestep 12200
1 4.89551 7.20883 0
2 19.176 6.35593 0
3 17.5638 5.93842 0
4 11.7936 19.0987 0
5 1.9133 18.1288 0
6 9.90512 9.17512 0
7 12.8674 17.4198 0
8 14.9122 2.3481 0
9 4.82633 6.17346 0
10 8.38542 2.41793 0
10
Frame at timestep 12400
1 5.66949 7.63759 0
2 19.1591 5.8804 0
3 18.0684 5.50425 0
4 12.7224 18.5034 0
5 2.05829 18.7968 0
6 10.2496 9.01699 0
7 13.7875 17.7912 0
8 13.9354 2.84326 0
9 4.59118 6.77264 0
10 7.80468 2.73137 0
10
Frame at timestep 12600
1 6.00169 7.52983 0
2 18.9852 5.68542 0
3 18.1257 4.94779 0
4 13.6349 19.1568 0
5 1.85483 17.937 0
6 10.5341 8.88637 0
7 14.4022 18.4442 0
8 13.1286 3.2469 0
9 4.70406 7.72952 0
10 7.32496 2.98666 0
10
Frame at timestep 12800
1 5.8929 7.55848 0
2 19.0912 5.67642 0
3 18.6667 4.28172 0
4 13.3673 19.2102 0
5 1.07058 17.5568 0
6 10.7897 8.76902 0
7 16.0419 18.7151 0
8 12.4037 3.60952 0
9 5.21269 8.4637 0
10 6.894 3.216 0
10
Frame at timestep 13000
1 5.66998 7.83705 0
2 19.0828 5.38646 0
3 18.5751 3.92841 0
4 13.1813 19.1273 0
5 1.58677 17.3252 0
6 11.0333 8.6572 0
7 17.5353 18.6214 0
8 11.713 3.95506 0
9 5.81664 8.91203 0
10 6.48334 3.43454 0
10
Frame at timestep 13200
1 5.42301 8.30078 0
2 19.0377 4.97996 0
3 18.5587 3.70921 0
4 13.0005 19.0248 0
5 1.77706 17.1039 0
6 11.2702 8.54844 0
7 19.2847 18.6846 0
8 11.0411 4.29116 0
9 6.43421 9.15532 0
10 6.0839 3.64711 0
10
Frame at timestep 13400
1 5.41196 9.10231 0
2 18.9827 4.53254 0
3 18.7934 3.51581 0
4 12.8152 19.0387 0
5 1.27762 16.8773 0
6 11.5128 8.43704 0
7 17.5562 18.6481 0
8 10.3531 4.63538 0
9 6.82483 9.07792 0
10 5.6748 3.86481 0
10
Frame at timestep 13600
1 5.79013 9.93396 0
2 19.1295 4.22554 0
3 18.446 3.17157 0
4 12.627 19.1592 0
5 1.48921 16.6469 0
6 11.7594 8.32384 0
7 16.0064 18.5613 0
8 9.65379 4.98521 0
9 6.8324 8.98218 0
10 5.25905 4.08606 0
10
Frame at timestep 13800
1 6.45638 10.527 0
2 19.1921 3.86751 0
3 18.9332 2.85008 0
4 12.4378 19.1943 0
5 1.87504 16.4066 0
6 12.0167 8.20572 0
7 14.3822 18.7921 0
8 8.92415 5.35022 0
9 6.56864 9.15694 0
10 4.82525 4.31691 0
10
Frame at timestep 14000
1 7.17937 10.777 0
2 18.872 3.63013 0
3 18.5124 2.34967 0
4 12.0763 18.8171 0
5 1.73554 16.1473 0
6 12.2943 8.07827 0
7 12.7872 18.0603 0
8 8.13694 5.74403 0
9 6.2799 9.73546 0
10 4.35721 4.56598 0
10
Frame at timestep 14200
1 7.77963 10.7319 0
2 18.6665 3.02876 0
3 18.3047 1.93677 0
4 11.0633 18.4588 0
5 0.717987 15.8457 0
6 12.6172 7.93004 0
7 11.5245 17.3637 0
8 7.22129 6.2021 0
9 6.18473 10.7441 0
10 3.81282 4.85569 0
10
Frame at timestep 14400
1 7.57558 10.703 0
2 18.345 2.04563 0
3 18.7008 0.820873 0
4 9.91477 19.1908 0
5 2.31645 15.4373 0
6 13.0544 7.7293 0
7 9.59126 16.9638 0
8 5.98133 6.82241 0
9 7.07278 12.0779 0
10 3.0756 5.24801 0
10
Frame at timestep 14600
1 7.34643 10.9766 0
2 17.5503 1.99672 0
3 18.2543 1.09733 0
4 8.65733 18.6092 0
5 3.70267 14.9868 0
6 13.5367 7.50787 0
7 7.44923 16.9701 0
8 4.61352 7.50667 0
9 8.05645 13.2439 0
10 2.25445 5.68078 0
10
Frame at timestep 14800
1 7.15362 11.3429 0
2 16.718 2.05336 0
3 17.1953 0.992985 0
4 7.47235 19.1332 0
5 4.90091 14.5969 0
6 13.9541 7.31627 0
7 5.69281 17.1271 0
8 3.43002 8.09873 0
9 8.90211 14.123 0
10 1.28081 6.05523 0
10
Frame at timestep 15000
1 6.99256 11.6498 0
2 16.2149 2.28092 0
3 16.1767 1.15746 0
4 6.46735 18.9995 0
5 5.90296 14.271 0
6 14.3031 7.15605 0
7 4.238 17.2751 0
8 2.43961 8.59319 0
9 9.60913 14.8577 0
10 1.50678 6.36904 0
10
Frame at timestep 15200
1 6.84726 11.9386 0
2 15.6253 1.80171 0
3 15.4258 0.787976 0
4 5.58201 18.8329 0
5 6.78913 13.9652 0
6 14.6105 7.0149 0
7 2.95639 17.4055 0
8 1.37502 8.97457 0
9 10.232 15.5049 0
10 1.76006 6.6997 0
10
Frame at timestep 15400
1 6.76878 12.594 0
2 15.1916 2.05921 0
3 14.596 1.07128 0
4 4.74745 18.8141 0
5 7.56597 13.2939 0
6 14.9004 6.88185 0
7 1.69833 17.5328 0
8 1.60936 9.23748 0
9 10.8191 16.115 0
10 1.29016 7.10798 0
10
Frame at timestep 15600
1 6.53302 12.9751 0
2 14.6842 1.9896 0
3 13.9144 1.10305 0
4 3.96217 18.8878 0
5 8.45885 12.8979 0
6 15.1731 6.75665 0
7 1.43142 17.7724 0
8 2.36394 9.36415 0
9 11.3716 16.6891 0
10 1.42151 7.61288 0
10
Frame at timestep 15800
1 6.78988 13.4005 0
2 14.0864 1.74211 0
3 13.4063 0.830995 0
4 3.18509 19.0853 0
5 8.81316 12.4586 0
6 15.4267 6.64021 0
7 2.52947 18.2597 0
8 2.64527 9.13204 0
9 11.8854 17.223 0
10 1.75564 8.43238 0
10
Frame at timestep 16000
1 7.16891 13.7676 0
2 13.6349 1.57038 0
3 12.7726 0.871565 0
4 3.72376 18.5776 0
5 9.03391 12.0779 0
6 15.6756 6.52594 0
7 2.07246 17.4692 0
8 3.19091 9.01475 0
9 12.3896 17.7669 0
10 0.815592 9.12611 0
10
Frame at timestep 16200
1 7.60954 14.143 0
2 13.1766 0.759091 0
3 12.0569 0.798404 0
4 3.97294 19.2145 0
5 9.24215 11.6878 0
6 15.9449 6.40232 0
7 1.53988 16.9982 0
8 3.4626 8.89578 0
9 12.9351 18.6513 0
10 1.64297 9.86869 0
10
Frame at timestep 16400
1 8.1507 14.6039 0
2 12.2746 1.9068 0
3 11.5171 0.908114 0
4 4.26157 18.2889 0
5 9.4979 11.2086 0
6 16.2756 6.25048 0
7 1.42169 16.4316 0
8 3.61469 8.84135 0
9 13.6051 18.184 0
10 1.99544 10.689 0
10
Frame at timestep 16600
1 8.80114 15.158 0
2 10.9396 2.62116 0
3 11.119 0.873271 0
4 4.60847 17.9384 0
5 9.8053 10.6328 0
6 16.6731 6.068 0
7 2.69881 15.7507 0
8 3.74569 8.82203 0
9 14.4103 16.6285 0
10 2.02893 11.6289 0
10
Frame at timestep 16800
1 9.5315 15.7802 0
2 9.57906 3.10634 0
3 10.5335 0.952771 0
4 4.99801 17.9166 0
5 10.1505 9.98616 0
6 17.1194 5.86309 0
7 4.0093 14.9862 0
8 3.89269 8.80045 0
9 15.3145 14.9083 0
10 1.67005 12.6842 0
10
Frame at timestep 17000
1 10.2878 16.4244 0
2 8.20428 3.49944 0
3 9.89316 1.00418 0
4 5.40139 18.232 0
5 10.5079 9.31656 0
6 17.5842 5.65089 0
7 5.36637 14.1944 0
8 4.0449 8.7781 0
9 16.2509 13.127 0
10 1.00676 13.777 0
10
Frame at timestep 17200
1 10.9974 17.0288 0
2 6.9156 3.8661 0
3 9.29134 0.963658 0
4 5.77982 19.2767 0
5 10.8432 8.68838 0
6 18.1646 5.45182 0
7 6.63949 13.4516 0
8 4.18771 8.75714 0
9 17.1293 11.4559 0
10 1.75601 14.8021 0
10
Frame at timestep 17400
1 11.6295 17.5687 0
2 5.76741 4.19278 0
3 8.75513 0.834299 0
4 6.11699 18.4142 0
5 11.142 8.12868 0
6 19.2519 5.27446 0
7 7.7738 12.7899 0
8 4.31494 8.73846 0
9 17.9406 9.96694 0
10 1.70697 15.7155 0
10
Frame at timestep 17600
1 12.2078 18.2038 0
2 4.7172 4.49158 0
3 8.26468 0.819223 0
4 6.42539 18.7207 0
5 11.4153 7.61675 0
6 18.2681 5.11223 0
7 8.81133 12.1845 0
8 4.43132 8.72138 0
9 19.1773 8.60506 0
10 0.78764 16.551 0
10
Frame at timestep 17800
1 12.752 19.0795 0
2 3.72876 4.77281 0
3 7.80307 0.945806 0
4 6.71565 18.6222 0
5 11.6725 7.13492 0
6 18.1681 4.96004 0
7 9.78783 11.6148 0
8 4.54085 8.7053 0
9 18.1682 7.32278 0
10 1.581 17.3373 0
10
Frame at timestep 18000
1 13.2684 18.1339 0
2 2.79081 5.03968 0
3 7.36504 0.964797 0
4 6.99108 18.7378 0
5 11.9165 6.67771 0
6 18.5887 5.02379 0
7 10.7145 11.0742 0
8 4.64479 8.69004 0
9 17.7103 5.89784 0
10 1.38104 18.1525 0
10
Frame at timestep 18200
1 13.7763 17.8438 0
2 1.81391 5.30212 0
3 6.93429 0.855401 0
4 7.26194 18.6413 0
5 12.1565 6.22809 0
6 18.6797 5.40002 0
7 11.6257 10.5426 0
8 4.747 8.67504 0
9 17.8562 4.18301 0
10 1.31786 18.9903 0
10
Frame at timestep 18400
1 14.2483 17.8532 0
2 1.1339 5.54604 0
3 6.53392 0.815067 0
4 7.51369 18.8778 0
5 12.3796 5.81018 0
6 17.9382 4.39712 0
7 12.4726 10.0484 0
8 4.842 8.66109 0
9 19.1147 3.94174 0
10 1.44368 17.9973 0
10
Frame at timestep 18600
1 14.6756 18.1426 0
2 2.06927 5.76686 0
3 6.17147 0.937045 0
4 7.7416 18.667 0
5 12.5816 5.43186 0
6 17.5656 2.72343 0
7 13.2394 9.60109 0
8 4.92801 8.64847 0
9 19.1339 4.48911 0
10 1.13382 17.5662 0
10
Frame at timestep 18800
1 15.0598 19.0238 0
2 2.51096 5.96539 0
3 5.84561 0.930119 0
4 7.94651 19.0712 0
5 12.7631 5.09172 0
6 17.2414 1.13165 0
7 13.9287 9.1989 0
8 5.00533 8.63712 0
9 19.0406 4.91592 0
10 1.19097 17.3105 0
10
Frame at timestep 19000
1 15.4169 18.4012 0
2 2.83633 6.14994 0
3 5.54269 0.808249 0
4 8.13698 18.9109 0
5 12.9319 4.77554 0
6 16.9428 1.99551 0
7 14.5695 8.82504 0
8 5.07721 8.62657 0
9 19.0952 5.31241 0
10 1.30236 17.077 0
10
Frame at timestep 19200
1 15.7498 18.3264 0
2 3.13963 6.32197 0
3 5.26032 0.882269 0
4 8.31454 18.7398 0
5 13.0892 4.4808 0
6 16.6644 3.14702 0
7 15.1669 8.47653 0
8 5.14421 8.61673 0
9 19.2028 5.68202 0
10 0.895451 16.8594 0
10
Frame at timestep 19400
1 16.0914 19.2448 0
2 3.45078 6.49845 0
3 4.97064 0.949628 0
4 8.49669 18.8344 0
5 13.2506 4.17843 0
6 16.3788 4.30925 0
7 15.7797 8.11901 0
8 5.21295 8.60664 0
9 19.0859 6.06118 0
10 1.16895 16.6361 0
10
Frame at timestep 19600
1 16.5015 18.0675 0
2 3.82613 6.7125 0
3 4.62273 0.865459 0
4 8.71545 18.9546 0
5 13.4445 3.81529 0
6 16.0363 5.70835 0
7 16.5152 7.68637 0
8 5.29385 8.59244 0
9 19.0249 6.51657 0
10 1.42695 16.368 0
10
Frame at timestep 19800
1 17.0173 17.1414 0
2 4.35891 7.0626 0
3 4.18525 0.798532 0
4 8.99054 18.4732 0
5 13.6883 3.35864 0
6 15.8611 7.84499 0
7 17.2203 6.76173 0
8 5.33478 8.49363 0
9 19.0608 7.09249 0
10 1.48854 16.0308 0
10
Frame at timestep 20000
1 17.6098 16.1275 0
2 4.77906 7.06857 0
3 3.68488 0.929467 0
4 9.30518 18.4037 0
5 13.9671 2.83635 0
6 16.1169 10.1955 0
7 17.8832 5.87316 0
8 5.57083 8.77508 0
9 19.1608 7.67552 0
10 1.1424 15.6451 0
10
Frame at timestep 20200
1 18.3907 15.0894 0
2 4.99633 6.75918 0
3 3.17252 0.984541 0
4 9.62736 19.1752 0
5 14.2525 2.28969 0
6 16.3836 12.5971 0
7 19.1318 5.08893 0
8 6.02548 9.37878 0
9 19.2029 8.15207 0
10 1.70039 15.2502 0
10
Frame at timestep 20400
1 18.7329 14.1372 0
2 5.20437 6.49551 0
3 2.70247 0.911568 0
4 9.92292 18.4859 0
5 14.5144 1.57178 0
6 16.6305 14.8002 0
7 18.2031 4.37688 0
8 6.43387 9.91245 0
9 19.0773 8.58187 0
10 1.42217 14.8879 0
10
Frame at timestep 20600
1 18.1682 13.3588 0
2 5.37959 6.27342 0
3 2.28458 0.79457 0
4 10.1719 19.253 0
5 14.735 1.24299 0
6 16.8904 16.6322 0
7 17.7826 3.77712 0
8 6.77784 10.362 0
9 19.0295 8.94389 0
10 1.24509 14.5828 0
10
Frame at timestep 20800
1 18.2439 12.6915 0
2 5.53104 6.08148 0
3 1.70679 0.903646 0
4 10.387 18.6855 0
5 14.9257 1.62091 0
6 17.122 18.236 0
7 17.6675 3.25879 0
8 7.07512 10.7504 0
9 19.1124 9.25676 0
10 1.14789 14.3191 0
10
Frame at timestep 21000
1 19.1052 12.052 0
2 5.67618 5.89753 0
3 1.0655 0.949922 0
4 10.5932 18.8024 0
5 15.1084 0.915788 0
6 17.344 18.4123 0
7 17.7637 2.76202 0
8 7.36003 11.1228 0
9 19.2027 9.55661 0
10 1.36291 14.0663 0
10
Frame at timestep 21200
1 18.4256 11.351 0
2 5.81503 5.72155 0
3 1.89829 0.844731 0
4 10.7905 19.1188 0
5 15.2832 1.50191 0
6 17.562 16.9498 0
7 18.1016 2.26904 0
8 7.63259 11.4789 0
9 19.0762 9.93277 0
10 0.735947 13.8245 0
10
Frame at timestep 21400
1 18.0823 11.0278 0
2 5.95104 5.54916 0
3 2.14233 0.835937 0
4 10.9837 18.7023 0
5 15.4544 1.1123 0
6 17.9142 15.5672 0
7 19.0339 1.54349 0
8 7.8996 11.8279 0
9 18.7985 9.93764 0
10 1.34325 13.5877 0
10
Frame at timestep 21600
1 18.2529 10.6604 0
2 6.08894 5.37439 0
3 2.08935 0.94499 0
4 11.1797 18.8173 0
5 15.628 1.47431 0
6 18.6479 14.1656 0
7 18.2613 1.38493 0
8 8.17029 12.1816 0
9 19.0805 9.98235 0
10 1.17004 13.3475 0
10
Frame at timestep 21800
1 18.1039 11.0332 0
2 6.22308 5.20438 0
3 1.70805 0.903388 0
4 11.3702 19.1619 0
5 15.8334 1.34585 0
6 18.4971 12.7934 0
7 17.74 2.16508 0
8 8.43361 12.5257 0
9 19.1113 9.30442 0
10 1.08049 13.114 0
10
Frame at timestep 22000
1 18.8031 10.2194 0
2 6.35177 5.04128 0
3 0.902725 0.801078 0
4 11.5531 18.7533 0
5 16.1809 1.3108 0
6 17.875 12.3081 0
7 17.3188 2.51561 0
8 8.68623 12.8558 0
9 19.1865 8.99434 0
10 1.32301 12.8898 0
10
Frame at timestep 22200
1 18.6349 10.038 0
2 6.46912 4.89254 0
3 1.67937 0.908617 0
4 11.7198 18.8022 0
5 16.4839 1.1474 0
6 17.6553 12.3369 0
7 16.9755 2.90573 0
8 8.91659 13.1568 0
9 19.1137 7.67949 0
10 0.999163 12.6855 0
10
Frame at timestep 22400
1 19.2619 9.92346 0
2 6.57534 4.75792 0
3 1.49232 0.920908 0
4 11.8707 19.0091 0
5 16.6493 1.34053 0
6 17.6589 12.351 0
7 16.7735 3.19986 0
8 9.12509 13.4293 0
9 19.1607 6.45173 0
10 0.875185 12.5005 0
10
Frame at timestep 22600
1 18.6563 9.80969 0
2 6.68066 4.62443 0
3 1.2206 0.809452 0
4 12.0203 19.245 0
5 16.8297 0.999082 0
6 17.8709 12.365 0
7 16.5569 3.12538 0
8 9.33185 13.6995 0
9 19.1305 5.23446 0
10 1.20495 12.3171 0
10
Frame at timestep 22800
1 18.7876 9.68539 0
2 6.79573 4.47859 0
3 1.86362 0.888721 0
4 12.1838 18.8412 0
5 16.9691 1.53186 0
6 18.4452 12.3803 0
7 16.3779 2.69912 0
8 9.55773 13.9947 0
9 19.1261 3.90459 0
10 1.27782 12.1167 0
10
Frame at timestep 23000
1 18.4792 9.53948 0
2 6.93081 4.30739 0
3 1.97983 0.953079 0
4 12.3757 18.6632 0
5 17.4465 1.01523 0
6 18.5946 12.3982 0
7 15.8614 2.50583 0
8 9.82289 14.3412 0
9 19.165 2.33668 0
10 0.734831 11.8815 0
10
Frame at timestep 23200
1 19.0789 9.36866 0
2 7.08896 4.10695 0
3 1.66736 0.862627 0
4 12.6004 19.2334 0
5 18.3126 1.7693 0
6 17.3687 12.4192 0
7 15.387 2.15003 0
8 10.1333 14.7469 0
9 19.2926 1.01712 0
10 1.49302 11.6061 0
10
Frame at timestep 23400
1 18.3156 9.18805 0
2 7.25616 3.89504 0
3 0.983032 0.81142 0
4 12.8379 18.581 0
5 19.1544 2.56996 0
6 16.2041 12.4414 0
7 14.8974 1.43633 0
8 10.4615 15.1758 0
9 17.3306 1.36956 0
10 0.756346 11.3149 0
10
Frame at timestep 23600
1 18.4689 9.01368 0
2 7.41758 3.69045 0
3 1.78262 0.935638 0
4 13.0673 19.0838 0
5 18.5846 2.58802 0
6 15.0797 12.4629 0
7 14.6297 1.40143 0
8 10.7784 15.5899 0
9 15.5724 0.924999 0
10 1.44377 11.0338 0
10
Frame at timestep 23800
1 18.9018 8.85476 0
2 7.56471 3.50398 0
3 1.82189 0.933486 0
4 13.2763 18.7805 0
5 19.1379 2.6029 0
6 14.0549 12.4824 0
7 13.1531 2.70133 0
8 11.0672 15.9673 0
9 15.2053 0.956936 0
10 0.811192 10.7776 0
10
Frame at timestep 24000
1 18.5934 8.716 0
2 7.69316 3.34118 0
3 1.27709 0.811945 0
4 13.4588 18.7598 0
5 18.839 2.6159 0
6 13.1601 12.4995 0
7 11.8908 3.70665 0
8 11.3194 16.2968 0
9 14.8579 0.852487 0
10 1.21974 10.5539 0
10
Frame at timestep 24200
1 18.8706 8.59659 0
2 7.80371 3.20107 0
3 1.38701 0.877645 0
4 13.6159 18.9789 0
5 18.7748 2.62708 0
6 12.3901 12.5142 0
7 10.8045 4.57178 0
8 11.5364 16.5804 0
9 14.5589 0.831738 0
10 1.22595 10.3614 0
10
Frame at timestep 24400
1 19.0941 8.49746 0
2 7.89548 3.08475 0
3 1.16788 0.923603 0
4 13.7462 19.1766 0
5 18.8908 2.63637 0
6 11.7508 12.5264 0
7 9.9026 5.29005 0
8 11.7165 16.8158 0
9 14.3107 0.929639 0
10 1.04662 10.2016 0
10
Frame at timestep 24600
1 18.8534 8.41365 0
2 7.97307 2.98641 0
3 1.30881 0.826189 0
4 13.8565 19.2337 0
5 19.0098 2.64422 0
6 11.2104 12.5367 0
7 9.14014 5.89727 0
8 11.8689 17.0148 0
9 14.1008 0.87025 0
10 0.87608 10.0665 0
10
Frame at timestep 24800
1 18.8214 8.33988 0
2 8.04136 2.89986 0
3 0.952429 0.871937 0
4 13.9535 19.2337 0
5 19.0745 2.65113 0
6 10.7347 12.5457 0
7 8.46904 6.43174 0
8 12.0029 17.19 0
9 13.9161 0.827802 0
10 0.793907 9.94757 0
10
Frame at timestep 25000
1 18.8523 8.27091 0
2 8.10521 2.81894 0
3 0.978854 0.910326 0
4 14.0442 19.2202 0
5 19.1004 2.65759 0
6 10.2899 12.5542 0
7 7.84159 6.93144 0
8 12.1283 17.3538 0
9 13.7434 0.919055 0
10 0.767221 9.83638 0
10
Frame at timestep 25200
1 18.9238 8.19849 0
2 8.17226 2.73396 0
3 1.3098 0.817578 0
4 14.1219 19.2193 0
5 19.1296 2.66437 0
6 9.82295 12.5631 0
7 7.18277 7.45613 0
8 12.2774 17.5426 0
9 13.5621 0.864401 0
10 0.754148 9.71963 0
10
Frame at timestep 25400
1 19.2515 8.10699 0
2 8.25697 2.6266 0
3 1.17839 0.888361 0
4 14.1309 19.199 0
5 19.25 2.67294 0
6 9.23291 12.5744 0
7 6.35034 8.11907 0
8 12.555 17.9888 0
9 13.333 0.825087 0
10 0.988068 9.57212 0
10
Frame at timestep 25600
1 18.5793 7.99003 0
2 8.36524 2.48897 0
3 1.70687 0.936539 0
4 14.3663 18.8101 0
5 18.8125 2.6839 0
6 8.4787 12.5888 0
7 5.28631 8.96647 0
8 12.686 19.2877 0
9 13.0401 0.94079 0
10 1.28815 9.38356 0
10
Frame at timestep 25800
1 19.0527 7.85455 0
2 8.49067 2.22692 0
3 1.43783 0.829646 0
4 15.0851 18.6655 0
5 18.6893 2.69658 0
6 7.60506 12.6054 0
7 4.05379 9.94805 0
8 12.3916 17.8869 0
9 12.7009 0.918228 0
10 1.16736 9.16515 0
10
Frame at timestep 26000
1 18.4573 7.70689 0
2 8.62737 1.66296 0
3 1.34091 0.851419 0
4 15.8288 19.1689 0
5 19.2656 2.71042 0
6 6.65287 12.6236 0
7 2.70412 11.0127 0
8 12.1105 16.8304 0
9 12.3312 0.797329 0
10 1.10598 8.93226 0
10
Frame at timestep 26200
1 19.2163 7.5523 0
2 8.77048 1.16934 0
3 1.93906 0.95084 0
4 16.6073 18.5742 0
5 18.6249 2.72489 0
6 5.65603 12.6426 0
7 1.12564 12.1181 0
8 11.8162 15.7378 0
9 11.9441 0.890038 0
10 1.36803 8.6977 0
10
Frame at timestep 26400
1 18.5242 7.40352 0
2 8.90822 1.98942 0
3 2.04788 0.894261 0
4 17.3566 19.1809 0